4
Properties=species:S:1:pos:R:3 energy=-269.84261 dipole="-0.0031229150163693863 -0.16364074685775584 0.1267903496645971" pbc="F F F"
C        0.61000000       0.00000000       1.00000000
C       -0.59954000       0.00000000       1.00000000
H       -1.44550455      -0.66817116       1.40057940
H        1.53826872      -0.05026781       1.16604567
