4
Properties=species:S:1:pos:R:3:forces:R:3 energy=-270.90296 dipole="0.0006245830032738773 -0.0 0.00020819433442462577" pbc="F F F"
C        0.60228867      -0.06665501       0.97908674       0.00638940      -0.01936003       0.02212554
C       -0.59753029       0.04188725       0.88031367       0.03888685       0.01521070      -0.01664653
H       -1.61675534       0.13824287       0.79212418      -0.04422306      -0.00305929       0.00324992
H        1.62311323      -0.16320373       1.06799314      -0.00105314       0.00720868      -0.00872898
