5
Properties=species:S:1:pos:R:3 energy=-175.67023 dipole="0.10951021990735316 -0.19382892534932658 -0.09202189581568458" pbc="F F F"
C       -0.59954000       0.00000000       1.00000000
H        0.26371346      -0.07704941       0.12125304
H        0.06048086       0.05747087       1.81534863
H       -1.57916615       0.29981559       1.24411321
H       -0.69493251      -1.03642270       0.55704960
